MODEL 1
REMARK VINA RESULT:    -4.140      0.000      0.000
REMARK INTER + INTRA:          -4.647
REMARK INTER:                  -4.624
REMARK INTRA:                  -0.024
REMARK UNBOUND:                -0.024
REMARK SMILES OC(O)[C@H]1CCCO1
REMARK SMILES IDX 2 1 4 2 5 3 8 4 6 5 7 6 1 7 3 9
REMARK H PARENT 1 8 3 10
ROOT
ATOM      1  C   UNL     1      35.864  31.565  -4.755  1.00  0.00     0.273 C 
ENDROOT
BRANCH   1   2
ATOM      2  C   UNL     1      35.194  32.681  -5.414  1.00  0.00     0.174 C 
ATOM      3  C   UNL     1      33.884  32.981  -5.512  1.00  0.00     0.040 C 
ATOM      4  O   UNL     1      35.959  33.635  -6.064  1.00  0.00    -0.373 OA
ATOM      5  C   UNL     1      33.794  34.166  -6.243  1.00  0.00     0.031 C 
ATOM      6  C   UNL     1      35.058  34.537  -6.560  1.00  0.00     0.161 C 
ENDBRANCH   1   2
BRANCH   1   7
ATOM      7  O   UNL     1      36.002  30.482  -5.375  1.00  0.00    -0.366 OA
ATOM      8  H   UNL     1      36.111  29.628  -5.864  1.00  0.00     0.213 HD
ENDBRANCH   1   7
BRANCH   1   9
ATOM      9  O   UNL     1      36.268  31.766  -3.586  1.00  0.00    -0.366 OA
ATOM     10  H   UNL     1      36.588  31.925  -2.663  1.00  0.00     0.213 HD
ENDBRANCH   1   9
TORSDOF 3
ENDMDL
MODEL 2
REMARK VINA RESULT:    -4.097      1.512      1.977
REMARK INTER + INTRA:          -4.599
REMARK INTER:                  -4.568
REMARK INTRA:                  -0.031
REMARK UNBOUND:                -0.024
REMARK SMILES OC(O)[C@H]1CCCO1
REMARK SMILES IDX 2 1 4 2 5 3 8 4 6 5 7 6 1 7 3 9
REMARK H PARENT 1 8 3 10
ROOT
ATOM      1  C   UNL     1      35.920  33.241  -6.015  1.00  0.00     0.273 C 
ENDROOT
BRANCH   1   2
ATOM      2  C   UNL     1      34.777  34.053  -6.418  1.00  0.00     0.174 C 
ATOM      3  C   UNL     1      33.468  33.744  -6.495  1.00  0.00     0.040 C 
ATOM      4  O   UNL     1      34.987  35.369  -6.794  1.00  0.00    -0.373 OA
ATOM      5  C   UNL     1      32.806  34.893  -6.929  1.00  0.00     0.031 C 
ATOM      6  C   UNL     1      33.745  35.855  -7.099  1.00  0.00     0.161 C 
ENDBRANCH   1   2
BRANCH   1   7
ATOM      7  O   UNL     1      35.824  31.990  -6.052  1.00  0.00    -0.366 OA
ATOM      8  H   UNL     1      35.750  31.003  -6.081  1.00  0.00     0.213 HD
ENDBRANCH   1   7
BRANCH   1   9
ATOM      9  O   UNL     1      36.947  33.861  -5.652  1.00  0.00    -0.366 OA
ATOM     10  H   UNL     1      37.758  34.350  -5.365  1.00  0.00     0.213 HD
ENDBRANCH   1   9
TORSDOF 3
ENDMDL
MODEL 3
REMARK VINA RESULT:    -3.980     19.737     20.163
REMARK INTER + INTRA:          -4.469
REMARK INTER:                  -4.441
REMARK INTRA:                  -0.028
REMARK UNBOUND:                -0.024
REMARK SMILES OC(O)[C@H]1CCCO1
REMARK SMILES IDX 2 1 4 2 5 3 8 4 6 5 7 6 1 7 3 9
REMARK H PARENT 1 8 3 10
ROOT
ATOM      1  C   UNL     1      35.357  23.145  11.777  1.00  0.00     0.273 C 
ENDROOT
BRANCH   1   2
ATOM      2  C   UNL     1      35.007  24.182  12.742  1.00  0.00     0.174 C 
ATOM      3  C   UNL     1      33.996  24.245  13.629  1.00  0.00     0.040 C 
ATOM      4  O   UNL     1      35.796  25.316  12.826  1.00  0.00    -0.373 OA
ATOM      5  C   UNL     1      34.133  25.453  14.314  1.00  0.00     0.031 C 
ATOM      6  C   UNL     1      35.226  26.076  13.810  1.00  0.00     0.161 C 
ENDBRANCH   1   2
BRANCH   1   7
ATOM      7  O   UNL     1      36.567  22.931  11.520  1.00  0.00    -0.366 OA
ATOM      8  H   UNL     1      37.521  22.762  11.318  1.00  0.00     0.213 HD
ENDBRANCH   1   7
BRANCH   1   9
ATOM      9  O   UNL     1      34.403  22.520  11.257  1.00  0.00    -0.366 OA
ATOM     10  H   UNL     1      33.650  22.026  10.846  1.00  0.00     0.213 HD
ENDBRANCH   1   9
TORSDOF 3
ENDMDL
MODEL 4
REMARK VINA RESULT:    -3.950      1.456      2.066
REMARK INTER + INTRA:          -4.435
REMARK INTER:                  -4.411
REMARK INTRA:                  -0.024
REMARK UNBOUND:                -0.024
REMARK SMILES OC(O)[C@H]1CCCO1
REMARK SMILES IDX 2 1 4 2 5 3 8 4 6 5 7 6 1 7 3 9
REMARK H PARENT 1 8 3 10
ROOT
ATOM      1  C   UNL     1      35.619  32.321  -5.447  1.00  0.00     0.273 C 
ENDROOT
BRANCH   1   2
ATOM      2  C   UNL     1      34.310  32.903  -5.724  1.00  0.00     0.174 C 
ATOM      3  C   UNL     1      33.708  33.184  -6.896  1.00  0.00     0.040 C 
ATOM      4  O   UNL     1      33.489  33.246  -4.663  1.00  0.00    -0.373 OA
ATOM      5  C   UNL     1      32.457  33.721  -6.589  1.00  0.00     0.031 C 
ATOM      6  C   UNL     1      32.352  33.745  -5.238  1.00  0.00     0.161 C 
ENDBRANCH   1   2
BRANCH   1   7
ATOM      7  O   UNL     1      36.643  33.038  -5.559  1.00  0.00    -0.366 OA
ATOM      8  H   UNL     1      37.451  33.604  -5.648  1.00  0.00     0.213 HD
ENDBRANCH   1   7
BRANCH   1   9
ATOM      9  O   UNL     1      35.635  31.116  -5.105  1.00  0.00    -0.366 OA
ATOM     10  H   UNL     1      35.647  30.164  -4.834  1.00  0.00     0.213 HD
ENDBRANCH   1   9
TORSDOF 3
ENDMDL
MODEL 5
REMARK VINA RESULT:    -3.781     19.825     20.900
REMARK INTER + INTRA:          -4.247
REMARK INTER:                  -4.220
REMARK INTRA:                  -0.026
REMARK UNBOUND:                -0.024
REMARK SMILES OC(O)[C@H]1CCCO1
REMARK SMILES IDX 2 1 4 2 5 3 8 4 6 5 7 6 1 7 3 9
REMARK H PARENT 1 8 3 10
ROOT
ATOM      1  C   UNL     1      34.999  23.044  11.895  1.00  0.00     0.273 C 
ENDROOT
BRANCH   1   2
ATOM      2  C   UNL     1      34.373  23.601  13.089  1.00  0.00     0.174 C 
ATOM      3  C   UNL     1      34.322  24.871  13.537  1.00  0.00     0.040 C 
ATOM      4  O   UNL     1      33.700  22.755  13.953  1.00  0.00    -0.373 OA
ATOM      5  C   UNL     1      33.589  24.851  14.725  1.00  0.00     0.031 C 
ATOM      6  C   UNL     1      33.226  23.565  14.949  1.00  0.00     0.161 C 
ENDBRANCH   1   2
BRANCH   1   7
ATOM      7  O   UNL     1      36.227  23.223  11.707  1.00  0.00    -0.366 OA
ATOM      8  H   UNL     1      37.195  23.364  11.558  1.00  0.00     0.213 HD
ENDBRANCH   1   7
BRANCH   1   9
ATOM      9  O   UNL     1      34.251  22.404  11.118  1.00  0.00    -0.366 OA
ATOM     10  H   UNL     1      33.660  21.900  10.505  1.00  0.00     0.213 HD
ENDBRANCH   1   9
TORSDOF 3
ENDMDL
MODEL 6
REMARK VINA RESULT:    -3.541     19.899     20.569
REMARK INTER + INTRA:          -3.979
REMARK INTER:                  -3.950
REMARK INTRA:                  -0.029
REMARK UNBOUND:                -0.024
REMARK SMILES OC(O)[C@H]1CCCO1
REMARK SMILES IDX 2 1 4 2 5 3 8 4 6 5 7 6 1 7 3 9
REMARK H PARENT 1 8 3 10
ROOT
ATOM      1  C   UNL     1      35.132  26.624  14.225  1.00  0.00     0.273 C 
ENDROOT
BRANCH   1   2
ATOM      2  C   UNL     1      34.877  25.331  13.598  1.00  0.00     0.174 C 
ATOM      3  C   UNL     1      33.873  24.452  13.786  1.00  0.00     0.040 C 
ATOM      4  O   UNL     1      35.760  24.861  12.642  1.00  0.00    -0.373 OA
ATOM      5  C   UNL     1      34.108  23.380  12.923  1.00  0.00     0.031 C 
ATOM      6  C   UNL     1      35.249  23.655  12.246  1.00  0.00     0.161 C 
ENDBRANCH   1   2
BRANCH   1   7
ATOM      7  O   UNL     1      35.787  27.490  13.594  1.00  0.00    -0.366 OA
ATOM      8  H   UNL     1      36.303  28.172  13.097  1.00  0.00     0.213 HD
ENDBRANCH   1   7
BRANCH   1   9
ATOM      9  O   UNL     1      34.668  26.789  15.377  1.00  0.00    -0.366 OA
ATOM     10  H   UNL     1      34.301  26.919  16.287  1.00  0.00     0.213 HD
ENDBRANCH   1   9
TORSDOF 3
ENDMDL
MODEL 7
REMARK VINA RESULT:    -3.418     10.813     11.588
REMARK INTER + INTRA:          -3.842
REMARK INTER:                  -3.810
REMARK INTRA:                  -0.032
REMARK UNBOUND:                -0.024
REMARK SMILES OC(O)[C@H]1CCCO1
REMARK SMILES IDX 2 1 4 2 5 3 8 4 6 5 7 6 1 7 3 9
REMARK H PARENT 1 8 3 10
ROOT
ATOM      1  C   UNL     1      30.535  30.685   4.357  1.00  0.00     0.273 C 
ENDROOT
BRANCH   1   2
ATOM      2  C   UNL     1      29.349  31.532   4.277  1.00  0.00     0.174 C 
ATOM      3  C   UNL     1      28.559  31.834   3.229  1.00  0.00     0.040 C 
ATOM      4  O   UNL     1      28.893  32.159   5.424  1.00  0.00    -0.373 OA
ATOM      5  C   UNL     1      27.557  32.679   3.707  1.00  0.00     0.031 C 
ATOM      6  C   UNL     1      27.783  32.856   5.032  1.00  0.00     0.161 C 
ENDBRANCH   1   2
BRANCH   1   7
ATOM      7  O   UNL     1      31.069  30.280   3.296  1.00  0.00    -0.366 OA
ATOM      8  H   UNL     1      31.490  29.960   2.458  1.00  0.00     0.213 HD
ENDBRANCH   1   7
BRANCH   1   9
ATOM      9  O   UNL     1      30.953  30.415   5.507  1.00  0.00    -0.366 OA
ATOM     10  H   UNL     1      31.284  30.201   6.415  1.00  0.00     0.213 HD
ENDBRANCH   1   9
TORSDOF 3
ENDMDL
MODEL 8
REMARK VINA RESULT:    -3.363      2.612      3.166
REMARK INTER + INTRA:          -3.780
REMARK INTER:                  -3.748
REMARK INTRA:                  -0.032
REMARK UNBOUND:                -0.024
REMARK SMILES OC(O)[C@H]1CCCO1
REMARK SMILES IDX 2 1 4 2 5 3 8 4 6 5 7 6 1 7 3 9
REMARK H PARENT 1 8 3 10
ROOT
ATOM      1  C   UNL     1      32.807  33.576  -3.227  1.00  0.00     0.273 C 
ENDROOT
BRANCH   1   2
ATOM      2  C   UNL     1      33.267  33.287  -4.581  1.00  0.00     0.174 C 
ATOM      3  C   UNL     1      32.638  33.416  -5.765  1.00  0.00     0.040 C 
ATOM      4  O   UNL     1      34.550  32.801  -4.765  1.00  0.00    -0.373 OA
ATOM      5  C   UNL     1      33.539  33.006  -6.749  1.00  0.00     0.031 C 
ATOM      6  C   UNL     1      34.682  32.644  -6.118  1.00  0.00     0.161 C 
ENDBRANCH   1   2
BRANCH   1   7
ATOM      7  O   UNL     1      31.626  33.963  -3.053  1.00  0.00    -0.366 OA
ATOM      8  H   UNL     1      30.694  34.268  -2.915  1.00  0.00     0.213 HD
ENDBRANCH   1   7
BRANCH   1   9
ATOM      9  O   UNL     1      33.641  33.414  -2.306  1.00  0.00    -0.366 OA
ATOM     10  H   UNL     1      34.299  33.285  -1.578  1.00  0.00     0.213 HD
ENDBRANCH   1   9
TORSDOF 3
ENDMDL
MODEL 9
REMARK VINA RESULT:    -3.363     21.025     22.100
REMARK INTER + INTRA:          -3.780
REMARK INTER:                  -3.754
REMARK INTRA:                  -0.026
REMARK UNBOUND:                -0.024
REMARK SMILES OC(O)[C@H]1CCCO1
REMARK SMILES IDX 2 1 4 2 5 3 8 4 6 5 7 6 1 7 3 9
REMARK H PARENT 1 8 3 10
ROOT
ATOM      1  C   UNL     1      34.183  26.699  15.574  1.00  0.00     0.273 C 
ENDROOT
BRANCH   1   2
ATOM      2  C   UNL     1      33.876  25.374  15.046  1.00  0.00     0.174 C 
ATOM      3  C   UNL     1      33.986  24.884  13.796  1.00  0.00     0.040 C 
ATOM      4  O   UNL     1      33.392  24.404  15.905  1.00  0.00    -0.373 OA
ATOM      5  C   UNL     1      33.566  23.554  13.844  1.00  0.00     0.031 C 
ATOM      6  C   UNL     1      33.216  23.292  15.127  1.00  0.00     0.161 C 
ENDBRANCH   1   2
BRANCH   1   7
ATOM      7  O   UNL     1      34.925  26.799  16.581  1.00  0.00    -0.366 OA
ATOM      8  H   UNL     1      35.510  26.878  17.376  1.00  0.00     0.213 HD
ENDBRANCH   1   7
BRANCH   1   9
ATOM      9  O   UNL     1      33.676  27.674  14.970  1.00  0.00    -0.366 OA
ATOM     10  H   UNL     1      33.276  28.443  14.493  1.00  0.00     0.213 HD
ENDBRANCH   1   9
TORSDOF 3
ENDMDL
MODEL 10
REMARK VINA RESULT:    -3.264      7.759      8.283
REMARK INTER + INTRA:          -3.669
REMARK INTER:                  -3.646
REMARK INTRA:                  -0.023
REMARK UNBOUND:                -0.024
REMARK SMILES OC(O)[C@H]1CCCO1
REMARK SMILES IDX 2 1 4 2 5 3 8 4 6 5 7 6 1 7 3 9
REMARK H PARENT 1 8 3 10
ROOT
ATOM      1  C   UNL     1      31.623  37.675   0.295  1.00  0.00     0.273 C 
ENDROOT
BRANCH   1   2
ATOM      2  C   UNL     1      32.630  38.442  -0.431  1.00  0.00     0.174 C 
ATOM      3  C   UNL     1      33.706  39.117   0.017  1.00  0.00     0.040 C 
ATOM      4  O   UNL     1      32.537  38.538  -1.809  1.00  0.00    -0.373 OA
ATOM      5  C   UNL     1      34.335  39.665  -1.103  1.00  0.00     0.031 C 
ATOM      6  C   UNL     1      33.610  39.298  -2.188  1.00  0.00     0.161 C 
ENDBRANCH   1   2
BRANCH   1   7
ATOM      7  O   UNL     1      31.804  36.446   0.475  1.00  0.00    -0.366 OA
ATOM      8  H   UNL     1      31.948  35.476   0.618  1.00  0.00     0.213 HD
ENDBRANCH   1   7
BRANCH   1   9
ATOM      9  O   UNL     1      30.622  38.309   0.703  1.00  0.00    -0.366 OA
ATOM     10  H   UNL     1      29.832  38.810   1.025  1.00  0.00     0.213 HD
ENDBRANCH   1   9
TORSDOF 3
ENDMDL
